100
Lattice="12.3 0.0 0.0 6.15 10.652112466548596 0.0 0.0 0.0 20.0" Properties=species:S:1:pos:R:3:tags:I:1:mol-id:I:1 energy=-154.5983885 pbc="T T T"
C        0.00000000       0.00000000       8.50000000        0        1
C       12.30000000       1.42028166       8.50000000        0        1
C       12.30000000       1.42028166      11.50000000        1        2
C        1.23000000       0.71014083      11.50000000        1        2
C        1.23000000       2.13042249       8.50000000        0        1
C       13.53000000       3.55070416       8.50000000        0        1
C       13.53000000       3.55070416      11.50000000        1        2
C        2.46000000       2.84056332      11.50000000        1        2
C        2.46000000       4.26084499       8.50000000        0        1
C       14.76000000       5.68112665       8.50000000        0        1
C       14.76000000       5.68112665      11.50000000        1        2
C        3.69000000       4.97098582      11.50000000        1        2
C        3.69000000       6.39126748       8.50000000        0        1
C       15.99000000       7.81154914       8.50000000        0        1
C       15.99000000       7.81154914      11.50000000        1        2
C        4.92000000       7.10140831      11.50000000        1        2
C        4.92000000       8.52168997       8.50000000        0        1
C       17.22000000       9.94197164       8.50000000        0        1
C       17.22000000       9.94197164      11.50000000        1        2
C        6.15000000       9.23183080      11.50000000        1        2
C        2.46000000       0.00000000       8.50000000        0        1
C        2.46000000       1.42028166       8.50000000        0        1
C        2.46000000       1.42028166      11.50000000        1        2
C        3.69000000       0.71014083      11.50000000        1        2
C        3.69000000       2.13042249       8.50000000        0        1
C        3.69000000       3.55070416       8.50000000        0        1
C        3.69000000       3.55070416      11.50000000        1        2
C        4.92000000       2.84056332      11.50000000        1        2
C        4.92000000       4.26084499       8.50000000        0        1
C        4.92000000       5.68112665       8.50000000        0        1
C        4.92000000       5.68112665      11.50000000        1        2
C        6.15000000       4.97098582      11.50000000        1        2
C        6.15000000       6.39126748       8.50000000        0        1
C        6.15000000       7.81154914       8.50000000        0        1
C        6.15000000       7.81154914      11.50000000        1        2
C        7.38000000       7.10140831      11.50000000        1        2
C        7.38000000       8.52168997       8.50000000        0        1
C        7.38000000       9.94197164       8.50000000        0        1
C        7.38000000       9.94197164      11.50000000        1        2
C        8.61000000       9.23183080      11.50000000        1        2
C        4.92000000       0.00000000       8.50000000        0        1
C        4.92000000       1.42028166       8.50000000        0        1
C        4.92000000       1.42028166      11.50000000        1        2
C        6.15000000       0.71014083      11.50000000        1        2
C        6.15000000       2.13042249       8.50000000        0        1
C        6.15000000       3.55070416       8.50000000        0        1
C        6.15000000       3.55070416      11.50000000        1        2
C        7.38000000       2.84056332      11.50000000        1        2
C        7.38000000       4.26084499       8.50000000        0        1
C        7.38000000       5.68112665       8.50000000        0        1
C        7.38000000       5.68112665      11.50000000        1        2
C        8.61000000       4.97098582      11.50000000        1        2
C        8.61000000       6.39126748       8.50000000        0        1
C        8.61000000       7.81154914       8.50000000        0        1
C        8.61000000       7.81154914      11.50000000        1        2
C        9.84000000       7.10140831      11.50000000        1        2
C        9.84000000       8.52168997       8.50000000        0        1
C        9.84000000       9.94197164       8.50000000        0        1
C        9.84000000       9.94197164      11.50000000        1        2
C       11.07000000       9.23183080      11.50000000        1        2
C        7.38000000       0.00000000       8.50000000        0        1
C        7.38000000       1.42028166       8.50000000        0        1
C        7.38000000       1.42028166      11.50000000        1        2
C        8.61000000       0.71014083      11.50000000        1        2
C        8.61000000       2.13042249       8.50000000        0        1
C        8.61000000       3.55070416       8.50000000        0        1
C        8.61000000       3.55070416      11.50000000        1        2
C        9.84000000       2.84056332      11.50000000        1        2
C        9.84000000       4.26084499       8.50000000        0        1
C        9.84000000       5.68112665       8.50000000        0        1
C        9.84000000       5.68112665      11.50000000        1        2
C       11.07000000       4.97098582      11.50000000        1        2
C       11.07000000       6.39126748       8.50000000        0        1
C       11.07000000       7.81154914       8.50000000        0        1
C       11.07000000       7.81154914      11.50000000        1        2
C       12.30000000       7.10140831      11.50000000        1        2
C       12.30000000       8.52168997       8.50000000        0        1
C       12.30000000       9.94197164       8.50000000        0        1
C       12.30000000       9.94197164      11.50000000        1        2
C       13.53000000       9.23183080      11.50000000        1        2
C        9.84000000       0.00000000       8.50000000        0        1
C        9.84000000       1.42028166       8.50000000        0        1
C        9.84000000       1.42028166      11.50000000        1        2
C       11.07000000       0.71014083      11.50000000        1        2
C       11.07000000       2.13042249       8.50000000        0        1
C       11.07000000       3.55070416       8.50000000        0        1
C       11.07000000       3.55070416      11.50000000        1        2
C       12.30000000       2.84056332      11.50000000        1        2
C       12.30000000       4.26084499       8.50000000        0        1
C       12.30000000       5.68112665       8.50000000        0        1
C       12.30000000       5.68112665      11.50000000        1        2
C       13.53000000       4.97098582      11.50000000        1        2
C       13.53000000       6.39126748       8.50000000        0        1
C       13.53000000       7.81154914       8.50000000        0        1
C       13.53000000       7.81154914      11.50000000        1        2
C       14.76000000       7.10140831      11.50000000        1        2
C       14.76000000       8.52168997       8.50000000        0        1
C       14.76000000       9.94197164       8.50000000        0        1
C       14.76000000       9.94197164      11.50000000        1        2
C       15.99000000       9.23183080      11.50000000        1        2
100
Lattice="12.3 0.0 0.0 6.15 10.652112466548596 0.0 0.0 0.0 20.0" Properties=species:S:1:pos:R:3:tags:I:1:mol-id:I:1 energy=-154.6087965 pbc="T T T"
C        0.00000000       0.00000000       8.40000000        0        1
C       12.30000000       1.42028166       8.40000000        0        1
C       12.30000000       1.42028166      11.60000000        1        2
C        1.23000000       0.71014083      11.60000000        1        2
C        1.23000000       2.13042249       8.40000000        0        1
C       13.53000000       3.55070416       8.40000000        0        1
C       13.53000000       3.55070416      11.60000000        1        2
C        2.46000000       2.84056332      11.60000000        1        2
C        2.46000000       4.26084499       8.40000000        0        1
C       14.76000000       5.68112665       8.40000000        0        1
C       14.76000000       5.68112665      11.60000000        1        2
C        3.69000000       4.97098582      11.60000000        1        2
C        3.69000000       6.39126748       8.40000000        0        1
C       15.99000000       7.81154914       8.40000000        0        1
C       15.99000000       7.81154914      11.60000000        1        2
C        4.92000000       7.10140831      11.60000000        1        2
C        4.92000000       8.52168997       8.40000000        0        1
C       17.22000000       9.94197164       8.40000000        0        1
C       17.22000000       9.94197164      11.60000000        1        2
C        6.15000000       9.23183080      11.60000000        1        2
C        2.46000000       0.00000000       8.40000000        0        1
C        2.46000000       1.42028166       8.40000000        0        1
C        2.46000000       1.42028166      11.60000000        1        2
C        3.69000000       0.71014083      11.60000000        1        2
C        3.69000000       2.13042249       8.40000000        0        1
C        3.69000000       3.55070416       8.40000000        0        1
C        3.69000000       3.55070416      11.60000000        1        2
C        4.92000000       2.84056332      11.60000000        1        2
C        4.92000000       4.26084499       8.40000000        0        1
C        4.92000000       5.68112665       8.40000000        0        1
C        4.92000000       5.68112665      11.60000000        1        2
C        6.15000000       4.97098582      11.60000000        1        2
C        6.15000000       6.39126748       8.40000000        0        1
C        6.15000000       7.81154914       8.40000000        0        1
C        6.15000000       7.81154914      11.60000000        1        2
C        7.38000000       7.10140831      11.60000000        1        2
C        7.38000000       8.52168997       8.40000000        0        1
C        7.38000000       9.94197164       8.40000000        0        1
C        7.38000000       9.94197164      11.60000000        1        2
C        8.61000000       9.23183080      11.60000000        1        2
C        4.92000000       0.00000000       8.40000000        0        1
C        4.92000000       1.42028166       8.40000000        0        1
C        4.92000000       1.42028166      11.60000000        1        2
C        6.15000000       0.71014083      11.60000000        1        2
C        6.15000000       2.13042249       8.40000000        0        1
C        6.15000000       3.55070416       8.40000000        0        1
C        6.15000000       3.55070416      11.60000000        1        2
C        7.38000000       2.84056332      11.60000000        1        2
C        7.38000000       4.26084499       8.40000000        0        1
C        7.38000000       5.68112665       8.40000000        0        1
C        7.38000000       5.68112665      11.60000000        1        2
C        8.61000000       4.97098582      11.60000000        1        2
C        8.61000000       6.39126748       8.40000000        0        1
C        8.61000000       7.81154914       8.40000000        0        1
C        8.61000000       7.81154914      11.60000000        1        2
C        9.84000000       7.10140831      11.60000000        1        2
C        9.84000000       8.52168997       8.40000000        0        1
C        9.84000000       9.94197164       8.40000000        0        1
C        9.84000000       9.94197164      11.60000000        1        2
C       11.07000000       9.23183080      11.60000000        1        2
C        7.38000000       0.00000000       8.40000000        0        1
C        7.38000000       1.42028166       8.40000000        0        1
C        7.38000000       1.42028166      11.60000000        1        2
C        8.61000000       0.71014083      11.60000000        1        2
C        8.61000000       2.13042249       8.40000000        0        1
C        8.61000000       3.55070416       8.40000000        0        1
C        8.61000000       3.55070416      11.60000000        1        2
C        9.84000000       2.84056332      11.60000000        1        2
C        9.84000000       4.26084499       8.40000000        0        1
C        9.84000000       5.68112665       8.40000000        0        1
C        9.84000000       5.68112665      11.60000000        1        2
C       11.07000000       4.97098582      11.60000000        1        2
C       11.07000000       6.39126748       8.40000000        0        1
C       11.07000000       7.81154914       8.40000000        0        1
C       11.07000000       7.81154914      11.60000000        1        2
C       12.30000000       7.10140831      11.60000000        1        2
C       12.30000000       8.52168997       8.40000000        0        1
C       12.30000000       9.94197164       8.40000000        0        1
C       12.30000000       9.94197164      11.60000000        1        2
C       13.53000000       9.23183080      11.60000000        1        2
C        9.84000000       0.00000000       8.40000000        0        1
C        9.84000000       1.42028166       8.40000000        0        1
C        9.84000000       1.42028166      11.60000000        1        2
C       11.07000000       0.71014083      11.60000000        1        2
C       11.07000000       2.13042249       8.40000000        0        1
C       11.07000000       3.55070416       8.40000000        0        1
C       11.07000000       3.55070416      11.60000000        1        2
C       12.30000000       2.84056332      11.60000000        1        2
C       12.30000000       4.26084499       8.40000000        0        1
C       12.30000000       5.68112665       8.40000000        0        1
C       12.30000000       5.68112665      11.60000000        1        2
C       13.53000000       4.97098582      11.60000000        1        2
C       13.53000000       6.39126748       8.40000000        0        1
C       13.53000000       7.81154914       8.40000000        0        1
C       13.53000000       7.81154914      11.60000000        1        2
C       14.76000000       7.10140831      11.60000000        1        2
C       14.76000000       8.52168997       8.40000000        0        1
C       14.76000000       9.94197164       8.40000000        0        1
C       14.76000000       9.94197164      11.60000000        1        2
C       15.99000000       9.23183080      11.60000000        1        2
100
Lattice="12.3 0.0 0.0 6.15 10.652112466548596 0.0 0.0 0.0 20.0" Properties=species:S:1:pos:R:3:tags:I:1:mol-id:I:1 energy=-154.6121186 pbc="T T T"
C        0.00000000       0.00000000       8.32500000        0        1
C       12.30000000       1.42028166       8.32500000        0        1
C       12.30000000       1.42028166      11.67500000        1        2
C        1.23000000       0.71014083      11.67500000        1        2
C        1.23000000       2.13042249       8.32500000        0        1
C       13.53000000       3.55070416       8.32500000        0        1
C       13.53000000       3.55070416      11.67500000        1        2
C        2.46000000       2.84056332      11.67500000        1        2
C        2.46000000       4.26084499       8.32500000        0        1
C       14.76000000       5.68112665       8.32500000        0        1
C       14.76000000       5.68112665      11.67500000        1        2
C        3.69000000       4.97098582      11.67500000        1        2
C        3.69000000       6.39126748       8.32500000        0        1
C       15.99000000       7.81154914       8.32500000        0        1
C       15.99000000       7.81154914      11.67500000        1        2
C        4.92000000       7.10140831      11.67500000        1        2
C        4.92000000       8.52168997       8.32500000        0        1
C       17.22000000       9.94197164       8.32500000        0        1
C       17.22000000       9.94197164      11.67500000        1        2
C        6.15000000       9.23183080      11.67500000        1        2
C        2.46000000       0.00000000       8.32500000        0        1
C        2.46000000       1.42028166       8.32500000        0        1
C        2.46000000       1.42028166      11.67500000        1        2
C        3.69000000       0.71014083      11.67500000        1        2
C        3.69000000       2.13042249       8.32500000        0        1
C        3.69000000       3.55070416       8.32500000        0        1
C        3.69000000       3.55070416      11.67500000        1        2
C        4.92000000       2.84056332      11.67500000        1        2
C        4.92000000       4.26084499       8.32500000        0        1
C        4.92000000       5.68112665       8.32500000        0        1
C        4.92000000       5.68112665      11.67500000        1        2
C        6.15000000       4.97098582      11.67500000        1        2
C        6.15000000       6.39126748       8.32500000        0        1
C        6.15000000       7.81154914       8.32500000        0        1
C        6.15000000       7.81154914      11.67500000        1        2
C        7.38000000       7.10140831      11.67500000        1        2
C        7.38000000       8.52168997       8.32500000        0        1
C        7.38000000       9.94197164       8.32500000        0        1
C        7.38000000       9.94197164      11.67500000        1        2
C        8.61000000       9.23183080      11.67500000        1        2
C        4.92000000       0.00000000       8.32500000        0        1
C        4.92000000       1.42028166       8.32500000        0        1
C        4.92000000       1.42028166      11.67500000        1        2
C        6.15000000       0.71014083      11.67500000        1        2
C        6.15000000       2.13042249       8.32500000        0        1
C        6.15000000       3.55070416       8.32500000        0        1
C        6.15000000       3.55070416      11.67500000        1        2
C        7.38000000       2.84056332      11.67500000        1        2
C        7.38000000       4.26084499       8.32500000        0        1
C        7.38000000       5.68112665       8.32500000        0        1
C        7.38000000       5.68112665      11.67500000        1        2
C        8.61000000       4.97098582      11.67500000        1        2
C        8.61000000       6.39126748       8.32500000        0        1
C        8.61000000       7.81154914       8.32500000        0        1
C        8.61000000       7.81154914      11.67500000        1        2
C        9.84000000       7.10140831      11.67500000        1        2
C        9.84000000       8.52168997       8.32500000        0        1
C        9.84000000       9.94197164       8.32500000        0        1
C        9.84000000       9.94197164      11.67500000        1        2
C       11.07000000       9.23183080      11.67500000        1        2
C        7.38000000       0.00000000       8.32500000        0        1
C        7.38000000       1.42028166       8.32500000        0        1
C        7.38000000       1.42028166      11.67500000        1        2
C        8.61000000       0.71014083      11.67500000        1        2
C        8.61000000       2.13042249       8.32500000        0        1
C        8.61000000       3.55070416       8.32500000        0        1
C        8.61000000       3.55070416      11.67500000        1        2
C        9.84000000       2.84056332      11.67500000        1        2
C        9.84000000       4.26084499       8.32500000        0        1
C        9.84000000       5.68112665       8.32500000        0        1
C        9.84000000       5.68112665      11.67500000        1        2
C       11.07000000       4.97098582      11.67500000        1        2
C       11.07000000       6.39126748       8.32500000        0        1
C       11.07000000       7.81154914       8.32500000        0        1
C       11.07000000       7.81154914      11.67500000        1        2
C       12.30000000       7.10140831      11.67500000        1        2
C       12.30000000       8.52168997       8.32500000        0        1
C       12.30000000       9.94197164       8.32500000        0        1
C       12.30000000       9.94197164      11.67500000        1        2
C       13.53000000       9.23183080      11.67500000        1        2
C        9.84000000       0.00000000       8.32500000        0        1
C        9.84000000       1.42028166       8.32500000        0        1
C        9.84000000       1.42028166      11.67500000        1        2
C       11.07000000       0.71014083      11.67500000        1        2
C       11.07000000       2.13042249       8.32500000        0        1
C       11.07000000       3.55070416       8.32500000        0        1
C       11.07000000       3.55070416      11.67500000        1        2
C       12.30000000       2.84056332      11.67500000        1        2
C       12.30000000       4.26084499       8.32500000        0        1
C       12.30000000       5.68112665       8.32500000        0        1
C       12.30000000       5.68112665      11.67500000        1        2
C       13.53000000       4.97098582      11.67500000        1        2
C       13.53000000       6.39126748       8.32500000        0        1
C       13.53000000       7.81154914       8.32500000        0        1
C       13.53000000       7.81154914      11.67500000        1        2
C       14.76000000       7.10140831      11.67500000        1        2
C       14.76000000       8.52168997       8.32500000        0        1
C       14.76000000       9.94197164       8.32500000        0        1
C       14.76000000       9.94197164      11.67500000        1        2
C       15.99000000       9.23183080      11.67500000        1        2
100
Lattice="12.3 0.0 0.0 6.15 10.652112466548596 0.0 0.0 0.0 20.0" Properties=species:S:1:pos:R:3:tags:I:1:mol-id:I:1 energy=-154.6127718 pbc="T T T"
C        0.00000000       0.00000000       8.25000000        0        1
C       12.30000000       1.42028166       8.25000000        0        1
C       12.30000000       1.42028166      11.75000000        1        2
C        1.23000000       0.71014083      11.75000000        1        2
C        1.23000000       2.13042249       8.25000000        0        1
C       13.53000000       3.55070416       8.25000000        0        1
C       13.53000000       3.55070416      11.75000000        1        2
C        2.46000000       2.84056332      11.75000000        1        2
C        2.46000000       4.26084499       8.25000000        0        1
C       14.76000000       5.68112665       8.25000000        0        1
C       14.76000000       5.68112665      11.75000000        1        2
C        3.69000000       4.97098582      11.75000000        1        2
C        3.69000000       6.39126748       8.25000000        0        1
C       15.99000000       7.81154914       8.25000000        0        1
C       15.99000000       7.81154914      11.75000000        1        2
C        4.92000000       7.10140831      11.75000000        1        2
C        4.92000000       8.52168997       8.25000000        0        1
C       17.22000000       9.94197164       8.25000000        0        1
C       17.22000000       9.94197164      11.75000000        1        2
C        6.15000000       9.23183080      11.75000000        1        2
C        2.46000000       0.00000000       8.25000000        0        1
C        2.46000000       1.42028166       8.25000000        0        1
C        2.46000000       1.42028166      11.75000000        1        2
C        3.69000000       0.71014083      11.75000000        1        2
C        3.69000000       2.13042249       8.25000000        0        1
C        3.69000000       3.55070416       8.25000000        0        1
C        3.69000000       3.55070416      11.75000000        1        2
C        4.92000000       2.84056332      11.75000000        1        2
C        4.92000000       4.26084499       8.25000000        0        1
C        4.92000000       5.68112665       8.25000000        0        1
C        4.92000000       5.68112665      11.75000000        1        2
C        6.15000000       4.97098582      11.75000000        1        2
C        6.15000000       6.39126748       8.25000000        0        1
C        6.15000000       7.81154914       8.25000000        0        1
C        6.15000000       7.81154914      11.75000000        1        2
C        7.38000000       7.10140831      11.75000000        1        2
C        7.38000000       8.52168997       8.25000000        0        1
C        7.38000000       9.94197164       8.25000000        0        1
C        7.38000000       9.94197164      11.75000000        1        2
C        8.61000000       9.23183080      11.75000000        1        2
C        4.92000000       0.00000000       8.25000000        0        1
C        4.92000000       1.42028166       8.25000000        0        1
C        4.92000000       1.42028166      11.75000000        1        2
C        6.15000000       0.71014083      11.75000000        1        2
C        6.15000000       2.13042249       8.25000000        0        1
C        6.15000000       3.55070416       8.25000000        0        1
C        6.15000000       3.55070416      11.75000000        1        2
C        7.38000000       2.84056332      11.75000000        1        2
C        7.38000000       4.26084499       8.25000000        0        1
C        7.38000000       5.68112665       8.25000000        0        1
C        7.38000000       5.68112665      11.75000000        1        2
C        8.61000000       4.97098582      11.75000000        1        2
C        8.61000000       6.39126748       8.25000000        0        1
C        8.61000000       7.81154914       8.25000000        0        1
C        8.61000000       7.81154914      11.75000000        1        2
C        9.84000000       7.10140831      11.75000000        1        2
C        9.84000000       8.52168997       8.25000000        0        1
C        9.84000000       9.94197164       8.25000000        0        1
C        9.84000000       9.94197164      11.75000000        1        2
C       11.07000000       9.23183080      11.75000000        1        2
C        7.38000000       0.00000000       8.25000000        0        1
C        7.38000000       1.42028166       8.25000000        0        1
C        7.38000000       1.42028166      11.75000000        1        2
C        8.61000000       0.71014083      11.75000000        1        2
C        8.61000000       2.13042249       8.25000000        0        1
C        8.61000000       3.55070416       8.25000000        0        1
C        8.61000000       3.55070416      11.75000000        1        2
C        9.84000000       2.84056332      11.75000000        1        2
C        9.84000000       4.26084499       8.25000000        0        1
C        9.84000000       5.68112665       8.25000000        0        1
C        9.84000000       5.68112665      11.75000000        1        2
C       11.07000000       4.97098582      11.75000000        1        2
C       11.07000000       6.39126748       8.25000000        0        1
C       11.07000000       7.81154914       8.25000000        0        1
C       11.07000000       7.81154914      11.75000000        1        2
C       12.30000000       7.10140831      11.75000000        1        2
C       12.30000000       8.52168997       8.25000000        0        1
C       12.30000000       9.94197164       8.25000000        0        1
C       12.30000000       9.94197164      11.75000000        1        2
C       13.53000000       9.23183080      11.75000000        1        2
C        9.84000000       0.00000000       8.25000000        0        1
C        9.84000000       1.42028166       8.25000000        0        1
C        9.84000000       1.42028166      11.75000000        1        2
C       11.07000000       0.71014083      11.75000000        1        2
C       11.07000000       2.13042249       8.25000000        0        1
C       11.07000000       3.55070416       8.25000000        0        1
C       11.07000000       3.55070416      11.75000000        1        2
C       12.30000000       2.84056332      11.75000000        1        2
C       12.30000000       4.26084499       8.25000000        0        1
C       12.30000000       5.68112665       8.25000000        0        1
C       12.30000000       5.68112665      11.75000000        1        2
C       13.53000000       4.97098582      11.75000000        1        2
C       13.53000000       6.39126748       8.25000000        0        1
C       13.53000000       7.81154914       8.25000000        0        1
C       13.53000000       7.81154914      11.75000000        1        2
C       14.76000000       7.10140831      11.75000000        1        2
C       14.76000000       8.52168997       8.25000000        0        1
C       14.76000000       9.94197164       8.25000000        0        1
C       14.76000000       9.94197164      11.75000000        1        2
C       15.99000000       9.23183080      11.75000000        1        2
100
Lattice="12.3 0.0 0.0 6.15 10.652112466548596 0.0 0.0 0.0 20.0" Properties=species:S:1:pos:R:3:tags:I:1:mol-id:I:1 energy=-154.6110032 pbc="T T T"
C        0.00000000       0.00000000       8.17500000        0        1
C       12.30000000       1.42028166       8.17500000        0        1
C       12.30000000       1.42028166      11.82500000        1        2
C        1.23000000       0.71014083      11.82500000        1        2
C        1.23000000       2.13042249       8.17500000        0        1
C       13.53000000       3.55070416       8.17500000        0        1